ITEM: TIMESTEP
2400
ITEM: NUMBER OF ATOMS
1176
ITEM: BOX BOUNDS xy xz yz pp pp pp
-1.1151487454682840e+00 2.8909990522557564e+01 2.5686059589647563e+00
4.0742300025629334e-02 2.4953343386529319e+01 -1.3185641818763221e+00
3.9391355904585278e-02 2.4395408644097312e+01 7.6588568655221445e-01
ITEM: ATOMS mass type x y z fx fy fz
40.0789 2 6.1456 11.8759 10.4739 1 0 0
40.0789 2 4.28363 8.96566 9.89359 1 0 0
40.0789 3 11.0856 17.1079 6.22574 1 0 0
28.0855 1 3.09863 12.5303 9.16617 1 0 0
28.0855 1 5.21748 14.574 8.6485 1 0 0
15.9994 7 1.72938 9.03294 7.88335 1 0 0
15.9994 8 6.83954 0.516366 10.6671 1 0 0
15.9994 8 3.99826 11.443 9.93561 1 0 0
15.9994 7 2.81582 12.1601 7.58987 1 0 0
15.9994 7 5.31745 14.1383 7.0974 1 0 0
15.9994 8 8.75861 3.63469 10.3413 1 0 0
15.9994 8 6.35582 13.9482 9.64679 1 0 0
15.9994 8 7.32457 3.09831 6.40895 1 0 0
15.9994 4 4.83182 11.3286 5.1205 1 0 0
1.008 5 5.84766 11.3766 4.95957 1 0 0
1.008 5 4.40884 11.5743 4.21214 1 0 0
40.0789 2 2.72669 11.7374 11.9546 1 0 0
40.0789 2 4.76531 14.6755 11.6094 1 0 0
40.0789 2 1.79785 13.0767 22.6829 0.114732 -0.0592472 -1.11493
40.0789 2 3.61042 16.1444 22.8976 0.918789 -0.026251 1.0578
40.0789 3 4.19244 10.3491 16.1603 0.0438663 0.891086 0.0770765
40.0789 3 6.38429 20.5658 16.4407 0.475799 -0.0211281 -0.0955475
28.0855 1 6.38252 12.2244 13.4166 0.773694 0.220963 -0.596893
28.0855 1 3.71407 8.72035 12.8546 -0.0180706 -0.600538 1.03891
28.0855 1 5.07707 13.4378 21.3843 -0.145097 0.807936 0.409463
28.0855 1 4.94725 11.2068 19.1781 -1.00082 2.29989 0.0146498
28.0855 1 2.89802 9.87529 20.6596 -0.197741 -0.680677 0.0500697
15.9994 7 6.02919 11.6563 14.9178 1.86061 -0.51541 -0.342678
15.9994 8 7.41592 11.3456 12.5451 0.0125192 -0.0126941 -1.4368
15.9994 8 5.18596 12.6005 12.4383 1 0 0
15.9994 7 4.02018 9.89748 13.943 0.172685 -0.225504 0.497508
15.9994 8 5.05774 8.12416 12.2221 1 0 0
15.9994 8 2.80975 9.31208 11.6605 1 0 0
15.9994 7 2.88399 7.52645 13.7278 -0.234915 -0.166058 1.43595
15.9994 7 5.74424 14.7571 20.5688 -0.448499 1.13503 0.806171
15.9994 8 6.1532 12.6581 22.2634 0.0836055 -0.214349 -0.654934
15.9994 8 3.92044 13.898 22.3858 0.460036 0.146307 1.27899
15.9994 7 4.54593 12.4751 20.1426 -1.55506 2.19492 -0.173271
15.9994 7 3.38711 10.3852 19.1232 -0.65953 1.01824 0.89105
15.9994 8 4.09389 9.30742 21.5573 -0.326513 -1.3987 -0.235666
15.9994 8 2.10398 10.8894 21.5783 -0.626555 -1.44616 0.403778
15.9994 8 9.89749 19.5974 16.9982 -0.0906408 0.530474 -0.643222
15.9994 8 5.36238 11.6524 17.7155 -1.98358 2.33636 -0.296453
15.9994 8 6.05102 10.2204 19.7595 -0.481137 2.53499 -0.215257
15.9994 4 4.78118 14.7339 18.0045 1.12564 0.654048 0.257815
1.008 5 4.9416 14.5995 19.0123 3.8032 -0.510772 -0.0730149
1.008 5 10.6182 24.0266 19.68 0.182773 1.88737 -0.531316
15.9994 4 4.48988 14.5611 15.1074 0.618931 -0.214584 -0.0236214
1.008 5 3.56792 14.1159 15.0981 -0.765148 2.47544 1.20615
1.008 5 12.8843 5.25728 14.6818 1.99766 0.119398 0.659241
40.0789 2 10.0071 18.1732 9.69072 1 0 0
40.0789 2 8.31928 15.0697 9.91561 1 0 0
40.0789 3 3.30246 10.1099 6.45869 1 0 0
28.0855 1 6.45548 17.6725 8.93837 1 0 0
28.0855 1 8.18319 19.1778 6.99624 1 0 0
28.0855 1 8.57874 21.3195 9.29798 1 0 0
15.9994 7 5.47823 16.2644 8.71429 1 0 0
15.9994 8 10.7857 6.6966 10.6306 1 0 0
15.9994 8 7.7831 17.3248 9.80734 1 0 0
15.9994 7 6.84147 18.1904 7.41922 1 0 0
15.9994 7 7.91603 20.5663 7.98699 1 0 0
15.9994 8 12.9146 9.78568 9.64635 1 0 0
15.9994 8 9.59321 20.3756 10.1299 1 0 0
15.9994 8 9.52221 18.4117 7.4171 1 0 0
15.9994 4 6.69987 16.1649 5.12458 1 0 0
1.008 5 6.80415 16.7711 5.93468 1 0 0
1.008 5 6.69877 16.7933 4.3255 1 0 0
40.0789 2 6.79071 18.0235 11.8906 1 0 0
40.0789 2 8.59424 20.9772 12.2625 1 0 0
40.0789 2 5.75416 19.0498 22.7194 -0.276268 1.17384 0.438274
40.0789 2 7.48503 22.3055 22.2255 0.234941 -0.536343 -0.32589
40.0789 3 5.88547 16.9727 18.0874 -0.235325 0.0431914 -0.567672
40.0789 3 6.14655 13.5226 16.4192 1.06345 0.0389234 -0.535806
28.0855 1 9.81772 17.5925 13.4393 -1.18749 -0.497453 -0.18292
28.0855 1 7.96351 14.9313 12.9299 0.594154 -0.450658 -1.19431
28.0855 1 9.10299 19.4945 21.1603 0.594848 0.170194 -0.222686
28.0855 1 8.93642 18.5886 17.9352 0.389192 -0.130842 -0.385646
28.0855 1 6.70143 15.9823 21.3245 0.236177 1.10069 -0.0310961
15.9994 7 10.3873 17.7607 15.0049 -0.319006 -0.262457 -0.107242
15.9994 8 10.8762 17.1806 12.3523 1 0 0
15.9994 8 8.7983 18.6696 12.9101 -1.21644 0.365876 1.29133
15.9994 7 8.7123 16.0759 13.8999 1.64448 -0.255199 -1.78846
15.9994 8 9.05702 14.2379 11.9576 1 0 0
15.9994 8 6.86342 15.6268 11.9945 1 0 0
15.9994 7 7.21848 13.7499 13.9128 1.22215 -0.593893 -0.916185
15.9994 7 1.92505 8.40659 20.0297 -0.184557 -1.12028 -1.74802
15.9994 8 10.004 18.4032 21.9067 0.113262 0.22017 0.691177
15.9994 8 7.88922 19.8763 22.1265 0.0689248 0.423798 -0.913365
15.9994 7 8.94142 19.3433 19.5101 0.920408 -0.570872 -0.381657
15.9994 7 7.05017 16.9814 20.0905 1.08382 -0.466025 -1.07342
15.9994 8 7.92082 15.3019 22.1008 -0.117162 0.566483 0.343406
15.9994 8 5.79816 16.6942 22.4494 0.819156 2.00855 -0.274404
15.9994 8 7.46647 18.5765 17.3271 0.169493 -0.157236 -0.0472044
15.9994 8 9.74341 17.2182 17.9383 0.838482 0.0893339 -1.24684
15.9994 4 4.79658 19.93 18.0747 -0.954987 1.11733 -0.869928
1.008 5 4.25444 19.0554 18.2085 -1.41172 1.40768 -0.66394
1.008 5 13.371 10.8525 18.0493 -3.09163 -0.184835 -0.730652
15.9994 4 8.12939 20.3451 14.9125 0.660568 -0.302192 0.0217818
1.008 5 8.35336 19.5911 14.2486 -0.603625 0.0691247 -1.06107
1.008 5 8.98773 20.5041 15.4339 1.1678 -2.48322 0.0436482
40.0789 2 7.7832 7.4345 24.3835 0.441598 -1.0735 0.578734
40.0789 2 8.55143 5.98611 10.9448 1 0 0
40.0789 2 6.63289 2.84497 10.8534 1 0 0
40.0789 3 10.6396 10.7117 5.4939 1 0 0
28.0855 1 5.27637 5.72243 9.48657 1 0 0
28.0855 1 6.27486 8.1229 7.30043 1 0 0
28.0855 1 7.88912 9.47568 9.37551 1 0 0
15.9994 8 6.88898 5.76174 0.170415 1 0 0
15.9994 7 4.77161 4.32942 8.63384 1 0 0
15.9994 8 4.00413 6.49923 10.0529 1 0 0
15.9994 8 6.28903 5.30711 10.6508 1 0 0
15.9994 7 6.05359 6.55726 8.25654 1 0 0
15.9994 7 7.72243 8.64292 7.95721 1 0 0
15.9994 8 6.47622 9.69565 10.1321 1 0 0
15.9994 8 8.77432 8.74852 10.5085 1 0 0
15.9994 8 6.36793 7.58564 5.82403 1 0 0
15.9994 8 5.01445 8.99216 7.67384 1 0 0
15.9994 4 10.4124 8.64556 6.66054 1 0 0
1.008 5 27.0865 18.9052 4.72178 1 0 0
1.008 5 9.43608 8.46994 6.8912 1 0 0
40.0789 2 5.09537 5.80155 12.5638 1 0 0
40.0789 2 7.21242 8.97261 12.2658 1 0 0
40.0789 2 4.737 7.16072 22.3202 0.23794 -0.789266 0.146954
40.0789 2 6.32673 10.3002 22.1002 -0.160844 -0.135383 -0.0256598
40.0789 3 4.49863 6.79448 17.0937 -0.331844 0.489685 -0.829475
40.0789 3 9.56108 15.6387 16.1885 0.72487 0.122809 -1.30132
28.0855 1 8.50637 5.79463 13.9338 0.244786 -0.13146 -0.297227
28.0855 1 6.61827 3.18588 13.8224 -0.123601 0.0194639 0.234955
28.0855 1 6.38047 0.783121 15.7274 -0.466704 0.250226 0.283237
28.0855 1 8.09112 7.55146 21.1836 0.55148 -0.0126885 0.464621
28.0855 1 7.46859 5.75332 18.7895 0.212977 0.274312 -0.0792482
28.0855 1 6.13264 3.92195 21.1403 0.342515 -0.704984 -0.381468
15.9994 7 9.11919 6.33845 15.3951 -0.786954 0.358765 -0.248202
15.9994 8 3.33496 16.4136 11.235 1 0 0
15.9994 8 7.75466 6.88738 12.9975 0.893766 -0.159896 -0.869363
15.9994 7 7.36081 4.61273 14.3369 -0.389655 0.346722 -0.302781
15.9994 8 2.55506 14.0246 12.5221 -2.04898 0.462184 -1.5618
15.9994 8 5.37402 3.49078 12.8201 -0.419291 -0.28222 0.446743
15.9994 7 6.15738 2.5015 15.2848 0.185147 0.504044 0.44109
15.9994 7 9.21236 8.80304 20.7692 0.0101447 0.190841 -0.256179
15.9994 8 3.46888 18.3925 22.2712 -0.062113 -0.911835 -0.560229
15.9994 8 6.95932 8.04289 22.2003 0.603827 -0.171307 0.440163
15.9994 7 7.37293 7.23539 19.6346 0.340957 -0.282598 0.669856
15.9994 7 7.13445 4.56433 19.9467 -0.214938 -0.583568 -0.814625
15.9994 8 1.39696 15.3992 22.5055 0.804897 0.277517 0.425474
15.9994 8 5.09771 4.90409 21.8616 0.898229 -0.625275 0.385243
15.9994 8 6.3462 5.50729 17.6858 0.107274 1.4206 -0.391781
15.9994 8 3.65013 17.5926 18.5268 -0.110093 0.870007 -1.08932
15.9994 4 4.48017 7.64353 19.2332 0.73721 0.894765 -0.631188
1.008 5 3.52928 7.8558 19.543 0.367247 -1.59358 -0.435658
1.008 5 12.5927 19.9264 19.557 -2.63702 0.998923 -1.25323
15.9994 4 8.30771 10.4699 16.0119 1.44415 -0.79968 1.53348
1.008 5 7.47561 10.9006 15.6002 0.84649 -1.54065 1.7308
1.008 5 8.98592 10.4924 15.224 0.782627 -1.09516 1.08505
40.0789 2 11.8093 13.2283 24.1278 0.0343323 0.399047 -0.626571
40.0789 2 9.58211 10.3889 24.1185 -0.443201 -0.221744 -1.29864
40.0789 2 12.8747 12.0984 9.95958 1 0 0
40.0789 2 11.0095 9.03343 10.6987 1 0 0
40.0789 3 6.0119 5.08746 6.30979 1 0 0
28.0855 1 9.99841 11.8464 9.05435 1 0 0
28.0855 1 11.1142 14.6557 8.77678 1 0 0
15.9994 8 10.9048 11.8393 0.40108 1 0 0
15.9994 7 8.56651 10.9945 8.94906 1 0 0
15.9994 8 9.98927 13.4574 9.00439 1 0 0
15.9994 8 10.6728 11.4056 10.4736 1 0 0
15.9994 9 10.9748 11.2415 7.82128 1 0 0
15.9994 9 10.9858 12.9765 4.88027 1 0 0
15.9994 8 10.4394 15.9302 9.52341 1 0 0
15.9994 8 12.401 14.282 9.66919 1 0 0
15.9994 4 13.4421 11.7841 6.27248 1 0 0
1.008 5 13.9737 11.2851 6.98834 1 0 0
1.008 5 7.94022 23.8466 6.19034 1 0 0
40.0789 2 9.68802 12.0289 12.4598 0.210017 -0.0539316 1.14873
40.0789 2 11.3138 15.0524 11.6104 1 0 0
40.0789 2 8.32679 13.1499 22.7933 -0.199699 0.344384 -0.284132
40.0789 2 10.1446 15.9772 22.1817 -0.474287 0.391478 -0.0299304
40.0789 3 10.7371 10.1718 17.3043 -1.06904 -0.678487 -1.29281
40.0789 3 7.59048 9.27052 18.2242 -0.396645 -0.702855 1.23668
28.0855 1 13.1265 12.4389 13.1757 0.22261 0.0205373 0.199962
28.0855 1 11.6819 9.92556 14.1283 1.67735 0.0494629 0.126448
28.0855 1 9.67523 6.6281 17.0104 -0.262078 -0.371006 -0.668631
28.0855 1 11.4554 12.7306 21.1956 -0.135188 -0.000684004 -0.701791
28.0855 1 11.7006 13.4027 17.9388 0.366102 -0.443308 -0.668212
28.0855 1 9.50422 10.5131 20.8352 -0.0809947 0.436672 -0.991197
15.9994 9 14.0817 13.7694 13.8415 -0.0889541 -0.270865 0.97502
15.9994 8 8.11758 23.1908 12.8404 0.233485 0.706189 0.60131
15.9994 8 11.7531 13.0653 12.6786 0.0135118 0.383024 0.882333
15.9994 7 12.8675 11.3036 14.3711 0.588622 -0.472869 -0.0682624
15.9994 8 6.33302 20.2448 12.5119 0.604602 0.849773 -0.520851
15.9994 8 10.2198 10.5495 14.1181 1.05403 -0.963713 0.460414
15.9994 7 11.9662 9.06305 15.5395 1.61171 -0.123378 0.271533
15.9994 7 5.27657 2.73014 20.2219 -0.489963 -0.028004 -0.318405
15.9994 8 7.676 24.6107 21.7714 0.156392 -0.741618 -0.973041
15.9994 8 10.4606 13.6197 22.1007 0.0267124 -0.0130185 -0.42556
15.9994 7 11.5136 13.2431 19.6033 -0.645944 -0.0660952 -0.764835
15.9994 7 9.13113 10.8272 19.2009 0.154309 -0.0860378 -0.920813
15.9994 8 5.35328 21.452 22.5809 0.216619 0.746406 0.380951
15.9994 8 8.55729 11.0008 22.0361 -0.305353 0.64407 -1.3693
15.9994 8 9.53296 8.15474 17.4335 -0.36466 -0.523233 -0.0848162
15.9994 8 11.4815 14.8771 17.3873 0.75209 -0.40268 -1.08494
15.9994 4 8.06974 13.0909 17.667 1.66942 0.18111 -0.166955
1.008 5 9.04542 12.7861 17.5089 1.60991 1.13472 -1.96125
1.008 5 7.87231 12.636 18.5504 4.65863 -0.280931 0.46026
15.9994 4 10.2499 13.7832 14.8946 -0.0982688 -1.20526 -0.202446
1.008 5 10.4714 13.1612 15.6975 0.519771 -1.78533 -0.430004
1.008 5 10.9005 13.4965 14.1586 1.44457 1.06674 0.317525
40.0789 2 13.6648 24.11 10.714 1 0 0
40.0789 2 11.7974 21.1825 10.4291 1 0 0
40.0789 3 1.80276 4.3135 5.48541 1 0 0
28.0855 1 10.2164 24.0238 9.43013 1 0 0
28.0855 1 8.26419 1.91821 6.98317 1 0 0
28.0855 1 9.95653 3.19145 9.32925 1 0 0
15.9994 7 9.3652 22.6882 8.75912 1 0 0
15.9994 8 1.72597 12.6515 10.0214 1 0 0
15.9994 8 11.6081 23.4792 9.97465 1 0 0
15.9994 7 7.6323 0.939243 8.15163 1 0 0
15.9994 7 9.56132 2.60314 7.83616 1 0 0
15.9994 8 3.82282 14.0366 9.39746 1 0 0
15.9994 8 10.8983 2.21933 10.2053 1 0 0
15.9994 8 8.758 1.12558 5.65271 1 0 0
15.9994 4 16.3869 22.9641 5.40508 1 0 0
1.008 5 15.7798 23.6235 4.93167 1 0 0
1.008 5 15.8735 22.7339 6.25181 1 0 0
40.0789 2 10.333 24.1016 12.753 0.145256 -0.124619 0.17733
40.0789 2 9.86079 2.76666 12.3492 1 0 0
40.0789 2 7.39871 0.924284 22.5344 0.240161 -0.948278 0.241066
40.0789 2 9.16938 4.17133 22.5053 0.338795 -0.277829 -0.244619
40.0789 3 9.99547 21.4685 18.5252 -0.260369 0.771653 -0.214218
40.0789 3 1.02039 9.63061 17.8381 0.222078 0.229535 0.521333
28.0855 1 13.6091 23.656 13.6988 0.0843083 0.217188 -0.0718592
28.0855 1 11.8405 21.0726 13.3957 1.21605 -0.181414 0.175051
28.0855 1 11.0097 19.1574 15.8954 -0.0885652 -0.441119 -0.301695
28.0855 1 10.3876 1.30815 20.8172 0.407116 0.792293 0.442229
28.0855 1 11.5312 21.8572 21.2698 0.443495 -0.231824 0.0471555
15.9994 7 13.9524 24.2295 15.2198 -0.508909 0.212679 0.0705935
15.9994 8 27.8849 23.2095 12.1787 1 0 0
15.9994 8 10.0933 0.453946 12.8062 -0.218489 0.132911 -0.0571868
15.9994 7 12.8642 22.178 14.1287 0.546317 0.0934781 0.330576
15.9994 8 12.7521 20.188 12.4003 1 0 0
15.9994 8 10.7546 21.8077 12.4725 1 0 0
15.9994 7 11.1378 20.2439 14.6563 1.20553 -0.681238 -0.306231
15.9994 7 11.2097 2.74633 20.106 -0.626201 0.664668 1.51044
15.9994 8 26.7343 24.3456 21.8417 0.683989 0.443755 0.591137
15.9994 8 9.61247 1.92445 22.0881 0.180889 -0.430109 0.883704
15.9994 7 9.56428 0.814977 19.4587 0.584514 0.290234 0.335573
15.9994 7 12.1933 21.6333 19.7453 0.0218813 0.480175 -0.209827
15.9994 8 12.4699 21.0894 22.3577 0.599529 -0.490783 -0.0716989
15.9994 8 11.3985 23.3206 21.8513 -0.128507 -0.613554 0.760819
15.9994 8 12.3536 18.7903 16.6273 -0.220973 -0.95561 -0.156257
15.9994 4 9.73947 23.566 19.4157 0.423486 1.11019 0.104827
1.008 5 9.38841 24.1422 18.6217 -0.832594 1.38971 0.561919
1.008 5 3.8033 14.431 17.9099 0.740339 1.52872 2.41274
15.9994 4 12.1991 6.0198 14.7025 1.6671 -0.127945 -0.0831376
1.008 5 11.5832 5.86056 15.5147 1.18775 -0.189653 -0.440304
1.008 5 4.22401 15.4927 14.8016 2.64822 0.737565 0.964225
40.0789 2 1.84257 5.64113 10.411 1 0 0
40.0789 2 0.170275 2.72019 9.58321 1 0 0
40.0789 3 10.1488 23.6744 4.2439 1 0 0
28.0855 1 11.6522 5.91214 9.48296 1 0 0
28.0855 1 26.4247 8.61839 8.55442 1 0 0
15.9994 7 10.8068 4.59302 8.93372 1 0 0
15.9994 8 5.61813 18.6902 9.88716 1 0 0
15.9994 8 12.9566 5.37166 10.3019 1 0 0
15.9994 7 11.8543 6.85534 8.17238 1 0 0
15.9994 7 25.2732 8.57358 7.35083 1 0 0
15.9994 8 7.4616 21.773 10.3579 1 0 0
15.9994 8 26.4769 7.11403 9.25357 1 0 0
15.9994 8 8.16025 19.7064 5.51513 1 0 0
15.9994 4 3.54868 5.85979 6.41992 1 0 0
1.008 5 3.40115 6.2577 7.33736 1 0 0
1.008 5 3.52709 6.68296 5.79553 1 0 0
40.0789 2 11.8074 5.683 12.4071 1 0 0
40.0789 2 0.566173 8.8975 11.7871 1 0 0
40.0789 2 11.1403 6.9659 22.0704 0.0841678 1.003 0.505703
40.0789 2 25.9942 10.1896 21.9046 -0.0918725 -0.0718309 0.633104
40.0789 3 10.6835 3.94068 18.0542 0.211585 0.196312 0.687345
40.0789 3 9.33525 0.691896 16.9071 -0.170998 0.212469 0.200489
28.0855 1 1.92005 6.16567 13.358 -0.239557 0.277051 -0.10216
28.0855 1 0.0566245 2.4177 13.4295 -1.11668 -0.253501 -1.09487
28.0855 1 12.47 1.22942 16.0157 -1.07861 0.13842 0.0438413
28.0855 1 1.28954 7.12097 20.9969 -0.275014 -0.573828 -1.43593
28.0855 1 -0.436467 4.37637 20.8695 0.698475 2.52789 -0.938423
15.9994 7 1.25998 5.65679 14.788 -0.510004 -0.892985 -0.679975
15.9994 8 2.82516 5.06348 12.5762 0.143363 0.944866 -0.777029
15.9994 8 0.846766 6.65984 12.2681 1 0 0
15.9994 7 1.03821 2.84846 14.7085 -3.15771 1.1289 0.354897
15.9994 8 0.910895 2.09847 12.1159 1 0 0
15.9994 8 12.107 3.38072 12.5119 1 0 0
15.9994 7 23.3999 4.73293 17.2808 0.624603 -0.221925 -0.477863
15.9994 7 10.0805 21.0328 21.0762 0.547959 -0.412733 -0.543572
15.9994 8 2.48031 6.51417 21.8844 -0.0435736 -1.16958 -1.88143
15.9994 8 0.214934 7.76709 21.9773 0.267914 -0.455088 -1.11084
15.9994 7 0.515061 5.89789 20.1037 -1.18965 -1.05474 -0.756208
15.9994 7 25.2185 3.55018 19.5585 -1.07627 1.20578 -0.0212163
15.9994 8 0.620212 3.63683 21.7908 0.214063 0.980919 -0.855227
15.9994 8 11.4471 4.68992 21.8924 -0.383743 1.07959 1.01468
15.9994 8 11.459 2.07775 16.9056 -1.23848 0.0600933 0.0112529
15.9994 4 13.0732 9.87749 18.1483 -0.938368 -0.550088 1.74232
1.008 5 13.7899 9.49038 18.7687 0.25145 2.7998 2.93484
1.008 5 4.59743 20.3932 18.9635 0.416905 0.970575 -0.444999
15.9994 4 15.0922 10.7405 15.9222 -0.105305 0.224368 1.23273
1.008 5 14.2568 10.8485 15.3308 0.266498 -0.253444 0.45632
1.008 5 14.8859 11.3747 16.685 -0.184912 2.00319 -0.210181
40.0789 2 3.88904 18.3897 0.0630012 1 0 0
40.0789 2 3.39198 18.2337 9.86549 1 0 0
40.0789 2 1.68334 14.8719 10.5108 1 0 0
40.0789 3 6.74139 21.6799 5.28564 1 0 0
28.0855 1 13.4632 18.5459 8.80456 1 0 0
28.0855 1 15.1378 21.203 9.27554 1 0 0
15.9994 8 14.7871 17.738 0.178876 1 0 0
15.9994 7 11.5485 14.9579 7.20603 1 0 0
15.9994 8 12.2156 18.9746 9.70224 1 0 0
15.9994 8 14.398 17.6456 9.73939 1 0 0
15.9994 9 13.0755 17.8514 7.36716 1 0 0
15.9994 9 14.3674 20.0288 8.27717 1 0 0
15.9994 8 14.06 21.824 10.2811 1 0 0
15.9994 8 3.15713 20.4606 9.98258 1 0 0
15.9994 4 27.6937 19.71 4.62791 1 0 0
1.008 5 10.9428 8.05691 7.31363 1 0 0
1.008 5 27.8869 19.7314 3.62424 1 0 0
40.0789 2 13.0665 18.0192 11.7773 1 0 0
40.0789 2 2.08807 20.947 12.0109 1 0 0
40.0789 2 12.1784 18.8379 22.6369 0.142109 -0.229797 1.23047
40.0789 2 1.43742 22.3743 22.7339 0.393559 -0.349575 0.00706885
40.0789 3 12.1463 16.9432 18.1798 0.46634 -0.366572 -0.402136
40.0789 3 6.19374 3.09963 17.8021 0.0919489 1.09224 -0.10167
28.0855 1 3.20877 17.3285 12.5848 0.667028 0.265108 0.826967
28.0855 1 1.72994 14.886 13.6234 -0.0338414 0.316427 -0.0117168
28.0855 1 2.64196 19.4517 21.389 0.478197 -0.345282 -0.518118
28.0855 1 2.13108 17.5789 18.9413 0.177474 0.626875 -0.234892
28.0855 1 26.7368 15.9828 21.2473 1.16808 0.472277 0.112213
15.9994 9 4.7451 17.7307 13.0841 0.673531 0.471125 0.820033
15.9994 8 9.60593 5.10596 12.9314 0.55131 -0.566062 0.533506
15.9994 8 2.34316 18.6049 12.1347 1 0 0
15.9994 7 2.55717 16.4026 13.7978 1.44892 -0.336728 0.77347
15.9994 8 7.64963 2.33669 12.9254 -0.211493 -0.0735224 0.326674
15.9994 8 13.4959 15.7421 11.9652 1 0 0
15.9994 9 13.3182 12.7425 17.75 0.240251 -0.865116 0.240009
15.9994 7 3.72553 20.5583 20.6721 0.766027 -0.211446 0.664718
15.9994 8 8.92179 6.34424 21.777 0.713137 -0.0641425 0.154909
15.9994 8 1.62092 20.1137 22.4478 0.374391 -0.57631 -0.487522
15.9994 7 1.79029 18.9436 20.0526 0.345007 1.27561 -1.08467
15.9994 7 1.60827 16.3463 19.953 1.567 1.02743 0.870899
15.9994 8 7.04324 3.26639 22.2636 0.704604 -1.01164 -0.683983
15.9994 8 12.3499 16.5532 22.4393 -0.535106 -0.137638 0.423545
15.9994 8 6.57619 0.814037 17.3075 -0.961409 0.510695 0.408241
15.9994 8 10.271 24.4213 15.0475 -0.553199 -0.0861694 0.552323
15.9994 8 27.2188 17.8781 17.7825 -0.58966 -0.360696 0.0919804
15.9994 8 8.90912 5.68765 18.1152 0.163476 -0.0717154 0.00744688
15.9994 4 12.6495 18.9083 19.4295 -0.576222 1.02468 -0.649757
1.008 5 13.2444 18.5924 20.2189 -0.218695 2.6262 -0.132969
1.008 5 5.07032 8.3109 19.7265 -0.984023 1.70334 0.414578
15.9994 4 13.9824 21.4082 16.614 0.428855 0.0363477 0.739142
1.008 5 13.0877 21.7283 17.0182 0.593181 0.715199 0.337921
1.008 5 13.7317 21.6233 15.6408 0.931541 -0.276909 0.325524
40.0789 2 4.09742 1.10338 23.8249 -0.715562 -0.623511 -0.983837
40.0789 2 6.0537 21.2816 0.354129 1 0 0
40.0789 2 7.17322 24.0228 10.7653 1 0 0
40.0789 2 5.35359 20.9741 10.4303 1 0 0
40.0789 3 24.2592 17.281 6.23387 1 0 0
28.0855 1 3.86948 23.7369 8.86014 1 0 0
28.0855 1 2.89206 1.10289 6.5355 1 0 0
28.0855 1 3.7745 2.97514 9.03017 1 0 0
15.9994 8 4.21634 24.2689 24.1481 -0.287083 0.00624679 0.710588
15.9994 7 3.03288 22.4155 8.17077 1 0 0
15.9994 8 0.280616 0.426561 9.77876 1 0 0
15.9994 8 5.03141 23.27 9.88505 1 0 0
15.9994 7 1.73996 0.437772 7.51896 1 0 0
15.9994 7 3.63591 2.1896 7.58088 1 0 0
15.9994 8 2.39676 3.5173 9.68482 1 0 0
15.9994 8 4.46912 2.13888 10.2238 1 0 0
15.9994 8 6.40816 24.1505 5.86635 1 0 0
15.9994 8 2.23375 1.9358 5.26577 1 0 0
15.9994 4 8.84916 23.3478 6.15255 1 0 0
1.008 5 9.12978 23.2361 7.13476 1 0 0
1.008 5 1.44744 13.1256 7.14158 1 0 0
40.0789 2 3.91353 23.9554 11.8679 1 0 0
40.0789 2 3.19555 2.77366 12.1135 1 0 0
40.0789 2 0.898202 1.1872 21.9516 -1.47896 0.549679 -0.594351
40.0789 2 2.83345 4.26431 22.2635 0.401437 -0.781329 -0.15981
40.0789 3 2.54358 4.02412 16.0169 -0.759372 -1.09614 0.159759
40.0789 3 14.5869 19.1897 17.4803 -1.00219 0.576876 0.0788156
28.0855 1 6.90148 23.6749 13.768 -0.213703 0.0441163 0.375374
28.0855 1 5.30561 21.0605 13.4355 0.481071 0.140421 -0.17941
28.0855 1 4.24514 1.44458 20.8219 -0.115581 -0.629209 -0.753419
28.0855 1 4.54961 21.9188 21.2699 -0.284396 0.439716 0.317558
15.9994 7 7.47609 24.3696 15.1782 -0.607913 0.816637 0.219161
15.9994 8 26.6584 11.1297 12.4798 1 0 0
15.9994 8 3.41741 0.45136 12.7736 -0.531245 -0.318531 0.20866
15.9994 7 6.02995 22.3109 14.3173 0.50428 -0.232023 0.641923
15.9994 8 12.0654 9.28966 12.7243 0.941447 -0.254528 -0.0393661
15.9994 8 4.22082 21.6766 12.4415 1 0 0
15.9994 9 7.80243 21.9281 17.6935 -0.524679 0.657682 0.580067
15.9994 7 13.3159 16.0024 19.9836 -0.936981 0.359852 0.128555
15.9994 8 25.7841 12.5868 22.0354 -0.241001 0.130788 0.446126
15.9994 8 3.09956 2.01184 21.8311 -0.276268 -0.957246 -0.658603
15.9994 9 3.54337 0.875361 19.4473 0.459405 -0.572834 -1.03833
15.9994 9 5.71249 22.2662 20.1141 -1.02337 0.91687 -0.211439
15.9994 8 10.9685 11.1002 21.1717 -0.101611 0.00659736 -0.419952
15.9994 8 3.4502 23.0321 21.5839 -0.696339 -0.000261121 0.294128
15.9994 8 11.1954 6.09673 17.1008 -0.218776 -0.441101 -1.25931
15.9994 8 10.667 12.466 17.1387 0.872976 -0.661967 -0.98986
15.9994 4 3.73444 2.24899 17.039 0.132808 -1.17736 -0.180545
1.008 5 3.53022 1.76134 17.9276 1.49311 -1.58619 0.149917
1.008 5 3.95975 1.47772 16.4063 1.24454 -1.18786 0.170729
15.9994 4 0.459358 4.44276 17.383 -0.159386 -0.522619 0.294354
1.008 5 -0.12387 3.94334 18.0703 0.79104 0.521654 1.94137
1.008 5 0.962991 5.06214 18.0166 -0.62295 1.79253 -1.51499
40.0789 2 6.36084 12.2995 0.0409049 -0.793801 -0.0169849 -0.0875051
40.0789 2 3.17821 10.1841 23.5757 -1.39221 -1.59665 0.242903
40.0789 3 5.91594 13.986 4.85779 1 0 0
28.0855 1 2.99957 11.7817 1.35167 1 0 0
28.0855 1 5.32206 15.5392 1.57141 1 0 0
15.9994 7 3.46875 12.1163 2.87947 1 0 0
15.9994 8 7.52286 1.09912 0.168904 1 0 0
15.9994 8 4.14858 11.4217 0.276388 1 0 0
15.9994 7 4.79229 14.8589 2.97893 1 0 0
15.9994 8 9.5101 4.34877 0.128453 1 0 0
15.9994 8 6.13774 14.5537 0.571655 1 0 0
15.9994 7 6.36027 16.781 2.07709 1 0 0
15.9994 8 9.36322 6.62729 2.42487 1 0 0
15.9994 4 1.75217 10.5116 4.69806 1 0 0
1.008 5 26.8985 10.5093 4.47251 1 0 0
1.008 5 2.19449 10.9901 3.91091 1 0 0
40.0789 2 9.06616 18.8537 24.0923 -0.236052 -0.126221 0.543266
40.0789 2 7.01269 15.9575 24.3013 -0.159406 0.804552 0.162929
40.0789 3 9.66572 19.9632 3.69952 1 0 0
28.0855 1 7.17274 18.0861 1.35921 1 0 0
28.0855 1 9.69734 22.0462 0.747635 1 0 0
15.9994 7 7.87331 18.9622 2.52179 1 0 0
15.9994 8 10.0871 8.08896 23.9601 -0.503271 -0.731316 0.628443
15.9994 8 8.24221 17.4913 0.275533 1 0 0
15.9994 7 10.0766 20.621 1.44272 1 0 0
15.9994 8 11.8324 10.8298 24.1196 -0.257422 0.610274 0.344716
15.9994 8 9.17891 22.9939 23.693 -0.376651 -1.82695 0.137149
15.9994 7 10.3209 23.2004 1.84613 1 0 0
15.9994 8 14.2878 12.4907 3.78158 1 0 0
15.9994 4 9.91399 15.6064 4.80851 1 0 0
1.008 5 10.1028 14.6115 4.95158 1 0 0
1.008 5 9.87876 15.7098 3.80259 1 0 0
40.0789 2 6.00423 4.22226 24.1543 0.372252 -0.843739 -0.425003
40.0789 3 7.84283 7.64731 3.95811 1 0 0
28.0855 1 5.85991 6.71271 0.970194 1 0 0
28.0855 1 7.43926 9.37276 1.03683 1 0 0
28.0855 1 8.14305 11.08 3.60913 1 0 0
15.9994 9 4.97405 6.05524 2.19974 1 0 0
15.9994 8 3.55587 8.0326 24.1866 -1.10118 -1.96862 -0.267528
15.9994 7 6.69861 7.96337 1.73888 1 0 0
15.9994 8 5.298 10.6839 24.1353 -1.76807 -0.178138 -1.00329
15.9994 8 8.87571 8.95511 0.500097 1 0 0
15.9994 7 7.32412 10.4167 2.30919 1 0 0
15.9994 8 8.63169 9.86089 4.54183 1 0 0
15.9994 8 7.30796 12.1701 4.3863 1 0 0
15.9994 4 7.03084 3.6457 2.28853 1 0 0
1.008 5 2.44933 13.414 3.19424 1 0 0
1.008 5 2.91839 14.8479 3.52709 1 0 0
40.0789 3 13.0348 13.9986 5.3949 1 0 0
28.0855 1 9.88375 12.5642 1.4299 1 0 0
28.0855 1 11.4628 15.2019 1.18357 1 0 0
28.0855 1 12.3242 17.3229 3.50587 1 0 0
15.9994 7 9.52358 11.7189 2.80396 1 0 0
15.9994 8 8.60186 12.9315 0.484191 1 0 0
15.9994 7 10.56 14.0103 1.96722 1 0 0
15.9994 8 9.31525 16.5262 24.277 0.169828 -0.0126569 0.537016
15.9994 8 12.8709 14.6252 0.695916 1 0 0
15.9994 7 11.6069 16.3915 2.33325 1 0 0
15.9994 8 11.2965 18.319 4.19562 1 0 0
15.9994 4 12.1268 9.86634 3.93677 1 0 0
1.008 5 26.0381 22.4054 7.06383 1 0 0
1.008 5 26.5136 23.4336 5.93815 1 0 0
40.0789 2 10.6096 1.40532 24.1689 0.221775 -0.794923 0.778189
40.0789 2 11.3827 22.5858 24.0626 0.0116811 -1.05714 0.668053
40.0789 3 8.44424 3.05 4.17966 1 0 0
28.0855 1 8.55248 0.440612 1.19821 1 0 0
28.0855 1 10.5588 3.79237 1.15189 1 0 0
28.0855 1 10.6025 5.84614 2.97631 1 0 0
15.9994 7 8.8348 1.29207 2.58266 1 0 0
15.9994 8 2.07842 12.8641 0.549077 1 0 0
15.9994 8 12.3986 24.1149 0.358419 1 0 0
15.9994 7 10.1744 3.9586 2.71538 1 0 0
15.9994 8 4.13189 16.1302 0.623414 1 0 0
15.9994 8 11.6324 2.97115 0.367948 1 0 0
15.9994 7 7.54844 5.28376 4.47363 1 0 0
15.9994 8 11.0468 6.07757 4.43743 1 0 0
15.9994 4 13.8706 21.3942 4.32665 1 0 0
1.008 5 12.8636 21.1949 4.35212 1 0 0
1.008 5 13.8618 22.312 4.78241 1 0 0
40.0789 2 1.43749 7.15324 23.9305 -1.01325 -1.33092 -1.29585
40.0789 2 12.4767 4.3373 23.9544 -0.46243 0.326846 1.1648
40.0789 3 1.33555 7.65836 3.80033 1 0 0
28.0855 1 12.5111 6.71613 0.638496 1 0 0
28.0855 1 14.1192 9.30986 0.828946 1 0 0
15.9994 7 11.765 5.73851 1.76151 1 0 0
15.9994 8 6.11016 18.9156 0.448318 1 0 0
15.9994 8 12.209 6.62599 24.0848 0.382628 0.403709 -0.0490273
15.9994 7 13.2817 7.9508 1.43356 1 0 0
15.9994 8 8.17002 22.3062 0.340978 1 0 0
15.9994 8 1.04989 9.52416 23.9379 -0.856337 -1.80889 0.682163
15.9994 7 1.96893 10.4055 1.65215 1 0 0
15.9994 4 1.20919 3.40235 2.02687 1 0 0
1.008 5 0.633351 3.47227 2.87944 1 0 0
1.008 5 1.90615 4.1235 2.17134 1 0 0
40.0789 2 15.0566 15.3735 0.0649154 1 0 0
40.0789 3 2.59579 21.5089 5.78749 1 0 0
28.0855 1 13.822 18.6525 1.10485 1 0 0
28.0855 1 15.6829 21.3241 0.749529 1 0 0
28.0855 1 3.86967 23.0343 3.33909 1 0 0
15.9994 7 13.5866 18.0684 2.65623 1 0 0
15.9994 8 12.5 18.8899 0.228723 1 0 0
15.9994 7 14.6025 20.1722 1.42394 1 0 0
15.9994 8 13.5906 23.2423 24.316 0.125883 -0.160465 0.445585
15.9994 8 3.75474 20.7373 0.493336 1 0 0
15.9994 7 2.93147 21.7318 2.90031 1 0 0
15.9994 8 5.42543 22.7516 3.54472 1 0 0
15.9994 4 2.05733 14.3039 3.53452 1 0 0
1.008 5 6.00689 3.59202 2.30897 1 0 0
1.008 5 7.21654 4.63078 2.46636 1 0 0
40.0789 3 3.65969 0.860952 3.61017 1 0 0
28.0855 1 2.06918 0.40075 0.598886 1 0 0
28.0855 1 3.88959 3.01714 0.823005 1 0 0
15.9994 7 3.80917 24.0277 1.95145 1 0 0
15.9994 8 -0.241318 1.8366 23.9042 0.601263 0.838367 0.368118
15.9994 7 3.1748 1.50314 1.28065 1 0 0
15.9994 8 1.69938 4.80752 24.3138 0.153784 -0.443793 -0.119043
15.9994 8 3.82498 3.42278 24.2546 0.33285 -0.214633 -0.0982326
15.9994 9 4.29605 3.52986 2.35233 1 0 0
15.9994 8 12.9377 16.3649 4.66973 1 0 0
15.9994 4 26.6865 22.4737 6.29643 1 0 0
1.008 5 12.5747 10.5815 3.37479 1 0 0
1.008 5 12.6036 9.02598 3.62415 1 0 0
40.0789 2 19.3327 12.1735 9.9278 1 0 0
40.0789 2 17.2859 9.00135 9.72397 1 0 0
40.0789 3 21.6879 18.1402 3.43284 1 0 0
28.0855 1 15.9428 11.9836 8.46089 1 0 0
28.0855 1 16.5019 14.0123 6.28924 1 0 0
28.0855 1 18.0182 15.3973 8.86465 1 0 0
15.9994 7 15.0027 10.6116 8.2187 1 0 0
15.9994 8 19.9134 0.703879 10.3125 1 0 0
15.9994 8 17.193 11.6779 9.41312 1 0 0
15.9994 7 16.2666 12.4588 6.9071 1 0 0
15.9994 7 17.3531 14.6804 7.5609 1 0 0
15.9994 8 21.8294 3.5071 9.88031 1 0 0
15.9994 8 18.9682 14.4898 9.82142 1 0 0
15.9994 8 17.4209 13.8777 4.98996 1 0 0
15.9994 4 19.2396 11.3444 6.34047 1 0 0
1.008 5 20.2534 11.2521 6.29869 1 0 0
1.008 5 18.97 10.6744 7.04848 1 0 0
40.0789 2 16.1545 12.3484 11.3864 1 0 0
40.0789 2 17.9891 15.1935 11.852 1 0 0
40.0789 2 15.0535 13.3659 22.3272 0.113032 -0.224317 -0.263849
40.0789 2 16.988 16.4242 22.4332 -0.630637 -0.741113 -0.838254
40.0789 3 17.3314 10.0302 15.7742 -0.0401837 -0.153788 -0.300262
40.0789 3 20.6958 19.032 17.8866 -0.405615 -0.220966 1.15373
28.0855 1 19.1944 11.9007 13.2262 -0.359906 0.0549915 -0.994339
28.0855 1 17.3738 9.39503 12.6953 -1.16486 -0.531241 -0.419093
28.0855 1 18.5138 13.7746 20.8202 0.110821 -0.984773 0.0268174
28.0855 1 17.9502 11.6392 18.7804 -0.118364 -0.383651 -0.194891
28.0855 1 16.0583 10.2279 20.8289 -0.537983 -0.457468 -0.494243
15.9994 7 19.9074 12.1057 14.7154 -0.524359 -0.811177 -0.681858
15.9994 8 20.1961 11.5565 12.0262 1 0 0
15.9994 8 18.1442 13.0056 12.6849 0.859563 0.977675 -1.23128
15.9994 7 18.2604 10.5013 13.5962 -2.1027 1.03801 -1.25373
15.9994 8 18.2908 8.40097 11.905 1 0 0
15.9994 8 16.3558 10.1009 11.7168 1 0 0
15.9994 7 16.5651 8.66936 13.9865 -0.690262 0.13278 0.12941
15.9994 7 19.5462 15.0981 20.4342 1.12363 -1.36549 0.85076
15.9994 8 19.3332 12.6278 21.5988 -0.172588 -1.24066 0.265789
15.9994 8 17.2933 14.1974 21.7607 -0.0710689 -1.02184 -0.352098
15.9994 7 18.0984 13.2763 19.3044 0.487838 -0.325811 -0.416546
15.9994 7 16.571 11.157 19.5804 -0.112921 -0.154896 -0.220211
15.9994 8 17.2146 9.49336 21.6749 -0.676176 -0.894853 -0.528188
15.9994 8 15.1941 11.0402 21.9101 -0.249522 -0.396027 -0.234228
15.9994 8 22.4284 20.2467 16.7825 -0.0354243 -1.12894 0.275848
15.9994 8 17.69 11.7636 17.2101 0.0165195 -0.375498 -0.292838
15.9994 8 19.1599 10.7141 19.1868 -0.159695 -0.5424 -0.199601