1176
Atoms. Timestep: 3000
Ca 7.00106 11.8756 10.4738
Ca 4.98231 8.96501 9.89334
Cw 12.3572 17.1083 6.22507
Si 3.69789 12.5301 9.16585
Si 5.99514 14.574 8.64811
Ob 2.21324 9.03233 7.88285
O 7.7526 0.514698 10.6669
O 4.67307 11.4427 9.93536
Ob 3.39133 12.1599 7.58934
Ob 6.10358 14.1383 7.09684
O 9.83331 3.63342 10.3411
O 7.22914 13.9481 9.64653
O 8.27876 3.09709 6.40833
Ow 5.57694 11.3283 5.11969
Hw 6.67815 11.3765 4.95889
Hw 5.11848 11.574 4.2112
Ca 3.29446 11.737 11.9546
Ca 5.50481 14.6755 11.6094
Ca 0.832506 13.0762 22.684
Ca 2.79778 16.1442 22.8988
Cw 3.42865 10.3484 16.1607
Cw 5.80559 20.5663 16.4412
Si 5.80301 12.2236 13.4179
Si 2.91005 8.71958 12.8547
Si 4.38765 13.4373 21.3853
Si 4.24688 11.2062 19.1789
Si 2.02508 9.87437 20.6605
Ob 5.42009 11.6557 14.9181
O 6.92545 11.3426 12.5454
O 5.95902 12.6034 12.4359
Ob 3.24197 9.89679 13.9432
O 5.8213 8.12339 12.2221
O 3.3844 9.31142 11.6603
Ob 2.01018 7.52573 13.7283
Ob 5.11112 14.7568 20.5697
O 5.55426 12.6575 22.2645
O 3.13374 13.8975 22.3869
Ob 3.81184 12.4745 20.1435
Ob 2.55543 10.3844 19.124
O 3.32152 9.30645 21.5583
O 1.16432 10.8886 21.5793
O 9.61425 19.5977 16.9988
O 4.69696 11.6518 17.7162
O 5.44341 10.2197 19.7603
Ow 4.06716 14.7336 18.0051
Hw 4.24093 14.5991 19.013
Hw 10.3957 24.0273 19.6808
Ow 3.75144 14.5609 15.1077
Hw 2.75204 14.1159 15.0984
Hw 12.8513 5.25608 14.6821
Ca 11.1879 18.1736 9.69044
Ca 9.35785 15.0697 9.91535
Cw 3.9188 10.1094 6.45803
Si 7.3375 17.6729 8.938
Si 9.21076 19.1785 6.99567
Si 9.63963 21.3203 9.29766
Ob 6.27794 16.2646 8.7139
O 12.0312 6.69565 10.6304
O 8.77671 17.3251 9.80707
Ob 7.75609 18.1909 7.41868
Ob 8.92118 20.567 7.98654
O 14.3394 9.78513 9.64607
O 10.7393 20.3762 10.1297
O 10.6623 18.4122 7.41656
Ow 7.6025 16.1652 5.12376
Hw 7.71562 16.7715 5.934
Hw 7.60156 16.7939 4.32461
Ca 7.70023 18.0233 11.8897
Ca 9.65629 20.9778 12.2625
Ca 5.12208 19.0499 22.7205
Ca 6.99881 22.306 22.2266
Cw 5.2645 16.9727 18.088
Cw 5.54736 13.5222 16.4197
Si 9.52777 17.5927 13.4395
Si 7.51739 14.9311 12.9302
Si 8.75272 19.4948 21.1614
Si 8.5722 18.5888 17.9358
Si 6.14891 15.9821 21.3255
Ob 10.1453 17.761 15.0052
O 12.1299 17.1808 12.3523
O 8.42421 18.6713 12.9122
Ob 8.32927 16.076 13.9002
O 10.1574 14.2378 11.9575
O 7.77954 15.6271 11.994
Ob 6.7096 13.7498 13.9131
Ob 0.97019 8.40556 20.0306
O 9.72937 18.4033 21.9078
O 7.43684 19.8765 22.1276
Ob 8.57759 19.3436 19.5109
Ob 6.52705 16.9814 20.0913
O 7.47076 15.3016 22.1019
O 5.1696 16.694 22.4505
O 6.97865 18.5767 17.3277
O 9.44701 17.2183 17.939
Ow 4.08421 19.9303 18.0754
Hw 3.49652 19.0557 18.2091
Hw 13.3793 10.8519 18.0498
Ow 7.69755 20.3456 14.9128
Hw 7.94022 19.5916 14.2489
Hw 8.62807 20.5046 15.4343
Ca 7.32283 7.43506 24.3846
Ca 9.60884 5.98509 10.9447
Ca 7.5287 2.84358 10.8532
Cw 11.8732 10.7113 5.49314
Si 6.05832 5.72143 9.48626
Si 7.14111 8.12221 7.29989
Si 8.89114 9.47509 9.37519
O 7.80222 5.75639 0.169768
Ob 5.51104 4.32826 8.63347
O 4.67909 6.49826 10.0527
O 7.15611 5.306 10.6507
Ob 6.90106 6.55638 8.25608
Ob 8.71046 8.64229 7.95673
O 7.35938 9.69507 10.1319
O 9.85068 8.74781 10.5083
O 7.24201 7.58493 5.82331
O 5.77467 8.99155 7.67332
Ow 11.6268 8.64498 6.65995
Hw 1.36755 18.9059 4.72106
Hw 10.5684 8.46935 6.89056
Ca 5.86195 5.80044 12.5637
Ca 8.15737 8.97189 12.2658
Ca 4.01852 7.15948 22.3213
Ca 5.74221 10.2994 22.1013
Cw 3.76027 6.79337 17.0942
Cw 9.24927 15.6386 16.189
Si 8.10525 5.79349 13.9339
Si 6.05814 3.18444 13.8227
Si 5.80006 0.781361 15.7277
Si 7.65485 7.55028 21.1846
Si 6.97995 5.75203 18.7903
Si 5.53138 3.92036 21.1413
Ob 8.76959 6.33728 15.3954
O 3.95425 16.4138 11.2348
O 7.29055 6.88638 12.9976
Ob 6.86322 4.61142 14.3372
O 1.65392 14.0244 12.5222
O 4.71242 3.49191 12.8226
Ob 5.55836 2.49991 15.2852
Ob 8.87052 8.802 20.7701
O 2.64451 18.3926 22.2724
O 6.42785 8.04173 22.2014
Ob 6.87631 7.23425 19.6354
Ob 6.61756 4.56286 19.9476
O 0.398053 15.399 22.5066
O 4.40943 4.90258 21.8627
O 5.76318 5.506 17.6865
O 2.84115 17.5927 18.5275
Ow 3.74022 7.64246 19.234
Hw 2.70962 7.85482 19.5438
Hw 12.5361 19.9267 19.5579
Ow 7.89011 10.4692 16.0123
Hw 6.98814 10.8999 15.6005
Hw 8.62527 10.4918 15.2244
Ca 11.6884 13.2292 24.1277
Ca 9.27466 10.3909 24.1166
Ca 14.2963 12.0981 9.95933
Ca 12.2739 9.03276 10.6986
Cw 6.85584 5.08646 6.30914
Si 11.1781 11.8461 9.05399
Si 12.3879 14.6557 8.77641
O 12.1555 11.8357 0.403482
Ob 9.62563 10.9941 8.94869
O 11.1683 13.4572 9.004
O 11.9091 11.4052 10.4734
Oh 12.2366 11.2412 7.82077
Oh 12.2488 12.9764 4.87946
O 11.6564 15.9304 9.5231
O 13.7829 14.282 9.66889
Ow 14.9115 11.7839 6.27183
Hw 15.4878 11.2848 6.98765
Hw 8.94781 23.8477 6.18969
Ca 9.3868 12.0286 12.4599
Ca 12.6042 15.0524 11.6103
Ca 7.91069 13.1493 22.7945
Ca 9.88163 15.9769 22.1828
Cw 10.5239 10.1711 17.3049
Cw 7.11238 9.26964 18.2249
Si 13.1145 12.4385 13.1758
Si 11.5482 9.92487 14.1285
Si 9.37236 6.62696 17.0109
Si 11.3025 12.73 21.1966
Si 11.5685 13.4023 17.9395
Si 9.18705 10.5123 20.8361
Oh 14.1502 13.7691 13.8416
O 7.68504 23.1916 12.8405
O 11.6258 13.0649 12.6786
Ob 12.8336 11.3031 14.3713
O 5.75109 20.2438 12.512
O 9.96314 10.5489 14.1183
Ob 11.8563 9.06224 15.5399
Ob 4.60324 2.72844 20.2228
O 7.20601 24.6115 21.7724
O 10.2241 13.6192 22.1017
Ob 11.3658 13.2427 19.6041
Ob 8.78267 10.8264 19.2017
O 4.68765 21.4524 22.5821
O 8.16046 10.9999 22.0372
O 9.21821 8.15379 17.434
O 11.3311 14.8769 17.3879
Ow 7.63223 13.0905 17.6676
Hw 8.68986 12.7857 17.5096
Hw 7.41821 12.6356 18.5512
Ow 9.99593 13.7829 14.8949
Hw 10.236 13.1609 15.698
Hw 10.7014 13.4964 14.1588
Ca 15.1537 24.1111 10.7138
Ca 13.129 21.1832 10.4289
Cw 2.29258 4.31244 5.48464
Si 11.4153 24.0248 9.42983
Si 9.29734 1.91684 6.98259
Si 11.132 3.19015 9.32894
Ob 10.4924 22.6892 8.75878
O 2.20968 12.6513 10.0211
O 12.9239 23.4802 9.97439
Ob 8.61214 0.937719 8.15116
Ob 10.7036 2.60178 7.83568
O 4.48312 14.0365 9.39717
O 12.1529 2.2179 10.2051
O 9.8327 1.12413 5.65201
Ow 18.1049 22.9651 5.40433
Hw 17.4468 23.6246 4.93093
Hw 17.5484 22.7349 6.25127
Ca 10.0869 24.1027 12.753
Ca 11.028 2.76522 12.3493
Ca 6.90369 0.922312 22.5356
Ca 8.82353 4.16975 22.5065
Cw 9.72053 21.469 18.5259
Cw -0.0103801 9.62978 17.8387
Si 13.6386 23.6569 13.6989
Si 11.7209 21.0731 13.396
Si 10.82 19.1577 15.8958
Si 10.1441 1.30628 20.8182
Si 11.3854 21.8576 21.2708
Ob 14.0107 24.2304 15.2202
O 2.23304 23.2104 12.1787
O 9.82528 0.452221 12.8062
Ob 12.831 22.1788 14.1292
O 14.1638 20.1886 12.4003
O 11.9984 21.8085 12.4719
Ob 10.959 20.2444 14.6566
Ob 11.0354 2.74462 20.1069
O 27.8675 24.3463 21.8428
O 9.30375 1.92258 22.0892
Ob 9.25155 0.813082 19.4595
Ob 12.1032 21.6338 19.7461
O 12.4029 21.0897 22.3588
O 11.2415 23.3212 21.8524
O 12.2769 18.7906 16.6278
Ow 9.44312 23.5668 19.4165
Hw 9.06251 24.143 18.6225
Hw 3.00719 14.4307 17.9106
Ow 12.1086 6.01864 14.7028
Hw 11.4409 5.85943 15.515
Hw 3.46342 15.4927 14.8019
Ca 2.33562 5.64005 10.4108
Ca 0.522476 2.71883 9.58292
Cw 11.3421 23.6756 4.24303
Si 12.9705 5.91114 9.48265
Si 0.649241 8.61776 8.55404
Ob 12.054 4.59186 8.93335
O 6.42977 18.6906 9.88691
O 14.3846 5.37059 10.3016
Ob 13.1898 6.85448 8.17188
Ob 27.7377 8.57295 7.35029
O 8.4285 21.7738 10.3577
O 0.705699 7.11319 9.25326
O 9.18599 19.7071 5.51439
Ow 4.18543 5.8589 6.41926
Hw 4.02551 6.25682 7.33685
Hw 4.16209 6.68226 5.79475
Ca 13.1386 5.68191 12.4071
Ca 0.952033 8.89678 11.7871
Ca 10.9605 6.96465 22.0715
Ca 27.0641 10.1887 21.9057
Cw 10.4652 3.93921 18.0549
Cw 9.00335 0.690065 16.9076
Si 0.964888 6.16453 13.3583
Si -1.05554 2.41615 13.4297
Si 12.4019 1.22769 16.0161
Si 0.281085 7.11978 20.9979
Si -1.59032 4.37485 20.8704
Ob 0.249208 5.65561 14.7883
O 1.94642 5.06157 12.5763
O 1.25563 6.65949 12.2673
Ob 0.00855498 2.84692 14.7087
O 1.32523 2.097 12.1159
O 13.4635 3.3832 12.5044
Ob 24.2514 4.73157 17.2813
Ob 9.81259 21.0332 21.0772
O 1.57195 6.51287 21.8854
O -0.883937 7.76594 21.9784
Ob -0.55857 5.89658 20.1046
Ob 26.2228 3.54862 19.5594
O -0.444806 3.6352 21.7919
O 11.2929 4.68839 21.8935
O 11.3058 2.07611 16.9061
Ow 13.0563 9.87666 18.149
Hw 13.8332 9.48963 18.7695
Hw 3.86842 20.3936 18.9642
Ow 15.2454 10.7399 15.9227
Hw 14.3397 10.8479 15.3313
Hw 15.0217 11.374 16.6856
Ca 4.5556 18.3904 0.0616484
Ca 4.01632 18.2341 9.86523
Ca 2.16364 14.8719 10.5106
Cw 7.64792 21.6808 5.28487
Si 14.9348 18.5464 8.80419
Si 16.7504 21.2037 9.27522
O 16.3527 17.7275 0.183128
Ob 12.8588 14.9581 7.20549
O 13.5823 18.9751 9.70196
O 15.9482 17.646 9.73909
Oh 14.5146 17.8518 7.36661
Oh 15.9152 20.0295 8.27671
O 15.582 21.8248 10.2808
O 3.76182 20.4612 9.98231
Ow 2.02588 19.7107 4.62705
Hw 12.2016 8.05616 7.31305
Hw 2.23544 19.732 3.62318
Ca 14.5032 18.0186 11.7761
Ca 2.6028 20.9477 12.0109
Ca 12.0868 18.838 22.6381
Ca 0.442423 22.3748 22.7351
Cw 12.052 16.9432 18.1805
Cw 5.59771 3.09806 17.8028
Si 2.36294 17.3287 12.5849
Si 0.759423 14.8859 13.6235
Si 1.74814 19.4519 21.39
Si 1.19426 17.579 18.942
Si 27.8697 15.9826 21.2483
Oh 4.02921 17.7304 13.0848
O 9.29723 5.10479 12.9314
O 2.87839 18.6059 12.134
Ob 1.65636 16.4027 13.798
O 7.17624 2.33522 12.9255
O 14.9701 15.7428 11.9641
Oh 13.3222 12.742 17.7506
Ob 2.923 20.5587 20.6731
O 8.55527 6.34293 21.7781
O 0.641203 20.114 22.449
Ob 0.824857 18.9438 20.0535
Ob 0.62735 16.3462 19.9538
O 6.51848 3.2647 22.2648
O 12.2726 16.553 22.4404
O 6.01214 0.812222 17.308
O 10.0196 24.4223 15.0478
O 28.3926 17.8782 17.7831
O 8.54168 5.68636 18.1158
Ow 12.5977 18.9085 19.4302
Hw 13.2423 18.5925 20.2197
Hw 4.38002 8.30988 19.7274
Ow 14.043 21.4088 16.6145
Hw 13.0733 21.7289 17.0188
Hw 13.7712 21.6239 15.6412
Ca 3.32464 1.10141 23.8261
Ca 6.90256 21.2827 0.352796
Ca 8.116 24.0238 10.7651
Ca 6.14311 20.9748 10.4301
Cw 26.639 17.2814 6.23322
Si 4.53439 23.7379 8.85978
Si 3.47325 1.1014 6.53486
Si 4.42994 2.97382 9.02983
O 3.45521 24.2695 24.1494
Ob 3.62735 22.4164 8.17033
O 0.641939 0.424898 9.77849
O 5.79399 23.271 9.88481
Ob 2.22412 0.436224 7.51842
Ob 4.27972 2.18823 7.58035
O 2.93632 3.51601 9.68454
O 5.18288 2.13745 10.2235
O 7.28683 24.1517 5.86564
O 2.75968 1.93447 5.26502
Ow 9.93307 23.3489 6.15186
Hw 10.2373 23.237 7.13413
Hw 1.90792 13.1255 7.14109
Ca 4.58104 23.9556 11.8667
Ca 3.80091 2.77124 12.1125
Ca -0.143631 1.18529 21.9527
Ca 1.95461 4.26274 22.2646
Cw 1.6406 4.02268 16.0173
Cw 14.6981 19.1899 17.4809
Si 6.36662 23.6759 13.7682
Si 4.6363 21.061 13.4359
Si 3.48493 1.44273 20.8229
Si 3.81645 21.9193 21.2709
Ob 6.98956 24.3706 15.1786
O 0.902567 11.1292 12.4798
O 2.59038 0.451597 12.7765
Ob 5.42171 22.3117 14.3177
O 11.9641 9.28893 12.7244
O 4.91414 21.679 12.441
Oh 7.34307 21.9287 17.6941
Ob 13.3199 16.0023 19.9844
O 26.8365 12.5862 22.0365
O 2.24299 2.01004 21.8322
Oh 2.72416 0.873517 19.4482
Oh 5.07727 22.2667 20.1149
O 10.7746 11.0994 21.1727
O 2.62464 23.0327 21.585
O 11.0203 6.09554 17.1014
O 10.448 12.4656 17.1392
Ow 2.9315 2.24734 17.0396
Hw 2.71014 1.75956 17.9283
Hw 3.17581 1.47585 16.4068
Ow -0.618923 4.44137 17.3836
Hw -1.25139 3.94188 18.0711
Hw -0.072998 5.06077 18.0172
Ca 5.78234 12.3014 0.0390224
Ca 2.32876 10.1832 23.577
Cw 6.7525 13.9861 4.85698
Si 3.59077 11.7816 1.35045
Si 6.10891 15.5395 1.57022
Ob 4.09938 12.1162 2.87843
O 8.49388 1.09785 0.167568
O 4.83127 11.417 0.276369
Ob 5.53446 14.8591 2.97789
O 10.6485 4.34785 0.12713
O 6.98672 14.5495 0.574732
Ob 7.23451 16.7815 2.07594
O 10.4893 6.62657 2.42382
Ow 2.2382 10.5113 4.69719
Hw 1.16342 10.509 4.47152
Hw 2.71773 10.9898 3.91001
Ca 8.71949 18.8585 24.0893
Ca 6.48877 15.959 24.3009
Cw 10.8182 19.964 3.69857
Si 8.11549 18.0867 1.35801
Si 10.8528 22.0473 0.74637
Ob 8.87501 18.9629 2.52072
O 9.8187 8.08778 23.9614
O 9.25763 17.4802 0.284916
Ob 11.2638 20.622 1.44152
O 11.7111 10.8289 24.1209
O 8.84116 22.994 23.6887
Ob 11.5288 23.2017 1.84496
O 15.8286 12.4906 3.78065
Ow 11.087 15.6067 4.80768
Hw 11.2916 14.6115 4.95077
Hw 11.0489 15.71 3.80165
Ca 5.39204 4.22061 24.1556
Cw 8.84107 7.64669 3.95718
Si 6.69142 6.71208 0.968973
Si 8.40378 9.37241 1.03557
Si 9.16679 11.0798 3.60813
Oh 5.7309 6.05444 2.19861
O 2.73801 8.03136 24.1879
Ob 7.60068 7.9628 1.73772
O 4.62693 10.6829 24.1366
O 9.95282 8.94732 0.507024
Ob 8.27898 10.4164 2.30806
O 9.69643 9.86051 4.54098
O 8.2615 12.17 4.38544
Ow 7.96054 3.64466 2.28742
Hw 2.99432 13.414 3.19327
Hw 3.50275 14.848 3.52616
Cw 14.4702 13.9986 5.39413
Si 11.0542 12.5643 1.42869
Si 12.7663 15.2022 1.18235
Si 13.7001 17.3234 3.5049
Ob 10.6636 11.7187 2.80289
O 9.6645 12.9316 0.482904
Ob 11.7874 14.0104 1.96608
O 8.98258 16.5259 24.2783
O 14.2927 14.6255 0.694647
Ob 12.9224 16.392 2.33212
O 12.5861 18.3195 4.19474
Ow 13.4856 9.86596 3.93583
Hw 28.568 22.4064 7.06319
Hw 29.0833 23.4346 5.93734
Ca 10.3907 1.40824 24.1663
Ca 11.2243 22.5862 24.0639
Cw 9.49271 3.04882 4.17875
Si 9.61002 0.439241 1.19698
Si 11.7853 3.79138 1.15065
Si 11.8328 5.84534 2.97528
Ob 9.9161 1.29076 2.58158
O 2.59226 12.8642 0.547755
O 13.7664 24.1041 0.367038
Ob 11.3686 3.95756 2.71432
O 4.81873 16.1307 0.622135
O 12.9449 2.96722 0.370382
Ob 8.52171 5.28284 4.47275
O 12.3145 6.07674 4.43656
Ow 15.3768 21.3951 4.32575
Hw 14.2852 21.1957 4.35136
Hw 15.3674 22.313 4.78164
Ca 0.445164 7.15463 23.9295
Ca 12.4108 4.33685 23.9542
Cw 1.78638 7.65772 3.79939
Si 13.9021 6.71556 0.637272
Si 15.6458 9.31057 0.829501
Ob 13.0931 5.73775 1.76047
O 6.96356 18.9163 0.44698
O 12.119 6.62456 24.0859
Ob 14.7374 7.95016 1.43259
O 9.19101 22.3078 0.345266
O 0.0212412 9.52299 23.9388
Ob 2.47331 10.4052 1.65098
Ow 1.64916 3.40126 2.02577
Hw 1.02493 3.4713 2.87835
Hw 2.40463 4.12241 2.17024
Ca 16.6624 15.3739 0.0635623
Cw 3.15355 21.5098 5.78681
Si 15.3242 18.6532 1.10362
Si 17.3418 21.3252 0.748271
Si 4.53483 23.0355 3.3381
Ob 15.0688 18.0691 2.65517
O 13.891 18.8906 0.227363
Ob 16.1704 20.1731 1.42297
O 13.6181 23.2428 24.3173
O 4.41016 20.7383 0.492042
Ob 3.5176 21.7329 2.89928
O 6.22141 22.7527 3.54376
Ow 2.56938 14.3041 3.53356
Hw 6.85061 3.59108 2.3078
Hw 8.16182 4.62968 2.46536
Cw 4.30553 0.859548 3.60921
Si 2.58134 0.39939 0.597605
Si 4.55531 3.01708 0.82436
Ob 4.46935 24.029 1.95033
O -1.37906 1.8347 23.9056
Ob 3.77991 1.50175 1.27966
O 0.725139 4.80588 24.3151
O 3.02905 3.41946 24.2512
Oh 4.99569 3.52882 2.35121
O 14.3651 16.3652 4.66889
Ow 29.2709 22.4747 6.29576
Hw 13.9711 10.5811 3.37382
Hw 14.0025 9.02551 3.62325
Ca 21.2975 12.1732 9.92755
Ca 19.0784 9.00069 9.72367
Cw 23.8516 18.1408 3.43187
Si 17.6225 11.9834 8.46045
Si 18.229 14.0124 6.28858
Si 19.8728 15.3974 8.86427
Ob 16.6032 10.6111 8.21828
O 21.9263 0.702202 10.3122
O 18.9778 11.6776 9.41281
Ob 17.9737 12.4587 6.90649
Ob 19.1518 14.6805 7.56039
O 24.0037 3.50582 9.88007
O 20.9026 14.4897 9.82117
O 19.2252 13.8777 4.98919
Ow 21.1968 11.3441 6.33979
Hw 22.2956 11.2518 6.29808
Hw 20.9045 10.674 7.04791
Ca 17.8519 12.3481 11.3861
Ca 19.8411 15.1935 11.852
Ca 15.2032 13.3654 22.3283
Ca 17.3007 16.424 22.4343
Cw 17.6729 10.0295 15.7746
Cw 21.3209 19.0323 17.8872
Si 19.6929 11.9003 13.2264
Si 17.7189 9.39426 12.6955
Si 18.9548 13.7741 20.8211
Si 18.3437 11.6386 18.7811
Si 16.2925 10.227 20.8298
Ob 20.4658 12.1053 14.7157
O 22.2335 11.5561 12.0262
O 18.5546 13.0054 12.6854
Ob 18.6802 10.5007 13.5965
O 20.1677 8.40016 11.905
O 18.0699 10.1004 11.7164
Ob 16.8422 8.66854 13.9866
Ob 20.0742 15.0979 20.4351
O 19.843 12.6272 21.5998
O 17.6316 14.197 21.7617
Ob 18.5045 13.2758 19.3052
Ob 16.8485 11.1562 19.5812
O 17.546 9.49242 21.6759
O 15.3557 11.0394 21.9111
O 23.1994 20.2471 16.783
O 18.0617 11.763 17.2107
O 19.6551 10.7133 19.1876
Ow 18.3949 16.328 17.9444
Hw 17.7531 16.707 18.6927
Hw 21.7586 2.64898 16.417
Ow 17.6204 14.3901 14.8963
Hw 16.811 15.0265 14.6072
Hw 28.27 22.8618 17.1218
Ca 25.4061 18.2509 10.3645
Ca 23.331 15.1745 10.1252
Cw 19.5805 11.5872 4.55486
Si 21.6025 18.0327 8.71769
Si 22.682 20.1894 6.43912
Si 24.1173 21.4285 9.15498
Ob 20.8627 16.618 8.14635
O 26.3336 6.7308 10.0466
O 23.044 17.5833 9.57941
Ob 21.8781 18.8175 7.22819
Ob 23.7573 20.6192 7.76569
O 0.11628 9.60619 9.75868
O 25.1825 20.5935 10.1205
O 23.6946 19.7686 5.2053
Ow 24.8773 18.0371 7.63533
Hw 24.1205 17.6698 8.30265
Hw 24.5666 19.0151 7.52877
Ca 21.7349 18.1809 11.8874
Ca 24.0178 21.1687 12.1778
Ca 19.1786 19.4885 22.2975
Ca 21.472 22.1668 22.7133
Cw 21.7653 15.2265 18.4197
Cw 18.1901 14.1497 17.1037
Si 23.7459 17.9614 13.3336
Si 22.0586 15.3102 13.1529
Si 21.5139 13.153 15.6073
Si 23.0486 19.942 21.4495
Si 20.7698 16.5961 21.0129
Ob 24.2751 18.7826 14.6807
O 26.5008 17.4434 12.3889
O 24.1468 18.7862 12.3598
Ob 22.9591 16.5829 13.959
O 24.551 14.5117 12.1336
O 22.2316 15.9206 12.2293
Ob 21.6331 14.3957 14.4423
Ob 15.215 9.08251 20.0726
O 24.2151 18.9068 21.9984
O 21.6523 19.8709 22.4128
Ob 21.1748 17.2954 19.5194
Ob 24.1447 15.3464 17.5926
O 22.1679 16.2785 21.8737
O 19.6081 17.2836 21.9581
O 20.7127 13.7888 16.8735
O 23.0903 12.5372 15.9527
Ow 20.1843 21.0901 18.2124
Hw 20.1954 21.7421 17.4348
Hw 26.1857 6.71016 19.4209
Ow 25.0696 23.3392 17.4867
Hw 25.9713 23.7077 17.9616
Hw 25.2424 23.4731 16.4982
Ca 21.7068 7.07089 24.3012
Ca 23.9093 5.95522 10.0291
Ca 21.6787 2.97444 10.6018
Cw 25.8294 11.8652 3.53968
Si 20.1878 5.65627 8.99764
Si 20.517 7.80472 6.83352
Si 22.7131 9.26264 8.60826
O 19.2848 6.49026 24.1439
Ob 19.2484 4.27414 8.55573
O 19.1777 6.65273 9.84976
O 21.4749 5.23159 10.037
Ob 20.7705 6.31405 7.58164
Ob 22.1007 8.57808 7.19301
O 21.4556 9.83215 9.58421
O 23.6574 8.27281 9.5333
O 20.132 7.56783 5.28795
O 19.2193 8.65424 7.45208
Ow 24.694 8.20466 5.74408
Hw 23.3331 16.0708 5.61974
Hw 23.7718 8.14014 6.30694
Ca 20.2303 6.04902 11.9448
Ca 22.5375 9.03718 11.5726
Ca 17.9816 7.21612 22.0917
Ca 19.9488 10.2071 21.4897
Cw 16.0009 4.84913 15.4538
Cw 25.3757 13.6364 16.368
Si 22.2727 5.77787 13.0301
Si 20.6249 3.36693 13.6119
Si 18.7565 1.99048 15.8333
Si 21.7251 7.1763 21.0206
Si 19.2013 3.78781 20.8511
Oh 24.9624 6.23479 14.5192
O 17.8793 17.39 12.52
O 22.7992 6.84127 12.3024
Ob 21.5037 4.83458 14.1148
O 17.4096 14.5056 11.8465
O 19.2395 3.75748 12.6981
Ob 20.2023 2.67691 15.0583
Ob 22.626 8.2622 20.0273
O 16.8177 18.786 22.0034
O 20.2536 7.7983 21.4726
Oh 21.6701 5.79256 19.973
Oh 19.3918 4.07716 19.2355
O 14.9195 15.7118 22.3026
O 18.2926 4.87787 21.6355
Ow 19.4439 8.93324 17.0135
Hw 19.5359 9.41946 17.9217
Hw 24.4681 18.167 19.9249
Ow 21.0084 5.79948 16.8714
Hw 21.2087 5.1487 16.1087
Hw 20.1511 6.34157 16.5617
Ca 25.6867 13.0946 24.0564
Ca 23.6256 10.0143 23.6799
Ca -0.137513 11.9483 10.0644
Ca 26.0065 9.01864 10.0504
Cw 21.0482 5.50951 4.44234
Si 24.6361 11.9198 8.64595
Si 25.1787 13.9609 6.23331
Si 26.8059 15.3988 8.76083
O 23.0929 12.2149 24.1403
Ob 23.6638 10.5954 8.08739
O 23.6359 12.8949 9.58808
O 25.8587 11.359 9.64257
Ob 25.154 12.6803 7.28789
Ob 26.0302 15.1493 7.27026
O 25.6917 15.9196 9.86807
O 27.8337 14.2783 9.36956
O 26.219 13.6672 4.99495
O 23.6434 14.532 5.80337
Ow 0.957356 13.5941 6.86945
Hw 0.409881 13.7278 7.7466
Hw 25.3796 22.5801 6.8726
Ca 24.6553 12.2142 11.6272
Ca 27.0119 15.0799 11.6936
Ca 22.2838 12.952 21.9911
Ca 24.4835 16.4779 22.5373
Cw 24.1189 10.2733 16.1566
Cw 23.0267 6.61615 18.0843
Si 26.4491 11.8416 13.2081
Si 24.3843 9.31597 13.0669
Si 25.8123 13.5125 21.1232
Si 25.637 11.3012 18.9789
Si 23.4822 9.66148 20.6045
Oh 26.7865 12.7013 14.5939
O 22.2416 23.4349 12.7156
O 27.079 12.7007 12.0807
Ob 25.2658 10.624 13.8445
O 21.5958 20.4345 12.3693
O 24.8127 9.89314 11.9226
Oh 23.458 8.70411 14.349
Ob 18.0403 2.19896 20.6033
O 21.4312 24.3932 22.3216
O 24.5216 14.0237 22.0757
Ob 25.1669 12.7119 19.7846
Ob 24.1628 10.325 19.2089
O 19.2289 21.7469 21.8864
O 22.4365 10.6688 21.4112
O 19.2155 18.4985 16.6075
O 25.8208 11.5825 17.4215
Ow 22.2057 13.1305 19.4595
Hw 23.2496 12.7934 19.3987
Hw 21.5598 12.3089 19.3339
Ow 25.779 15.7536 15.1795
Hw 24.8226 16.0341 14.7503
Hw 26.478 15.6011 14.3739
Ca 29.4077 24.0689 10.2295
Ca 27.509 21.1647 10.6621
Cw 14.2449 6.572 6.01447
Si 25.7971 24.0972 9.30543
Si 24.9545 2.80084 8.77315
Ob 24.8605 22.8834 8.50107
O 16.6119 13.0029 9.33944
O 27.0345 23.4083 10.1806
Ob 23.6544 0.967535 8.1563
Ob 26.0492 0.820141 5.584
O 18.6938 16.0541 9.84749
O 26.2955 2.14158 9.50069
O 16.796 14.8145 5.93607
Ow 24.5149 2.70883 3.98523
Hw 25.1145 3.56303 4.04992
Hw 24.918 2.18269 3.19052
Ca 25.9822 24.2934 12.2721
Ca 25.4862 2.95823 11.8044
Ca 20.9355 1.09813 22.2436
Ca 22.9312 4.40911 22.1342
Cw 23.3629 21.9251 18.504
Cw 13.1473 7.30373 16.6953
Si 28.1261 24.0555 13.2058
Si 26.1742 21.5885 13.7037
Si 24.6275 19.8549 15.9622
Si 26.7131 24.5653 20.675
Si 25.2511 22.0593 21.2313
Ob 26.3984 0.997357 13.9892
O 15.005 23.2924 12.7524
O 25.6577 0.720882 12.2804
Ob 27.223 22.9538 14.1841
O 27.1782 20.5224 12.8802
O 24.9531 22.007 12.6432
Ob 25.4475 21.1171 15.1418
Ob 23.4272 2.01886 20.5157
O 14.2512 24.5574 21.3647
O 25.2677 23.6703 21.0561
Ob 27.3125 24.2696 19.1078
Ob 25.6263 21.3188 19.6971
O 26.3248 21.6359 22.393
O 23.6406 21.5341 21.6358
O 25.7388 19.1908 16.9969
Ow 21.9994 2.32688 17.3565
Hw 21.0241 1.90391 17.6078
Hw 18.6431 17.1848 17.4058
Ow 27.9985 21.9456 16.7771
Hw 27.632 22.1371 15.8322
Hw 17.902 13.8246 14.0774
Ca 16.7258 6.25671 10.4395
Ca 14.6197 2.82796 10.3666
Cw 23.5826 1.68264 5.84911
Si -0.661978 6.03776 9.28622
Si 15.6289 9.23258 8.66326
Ob 24.734 3.31842 7.27466
O 20.6099 18.7917 9.80411
O -0.0950426 4.83666 10.2373
Ob 27.1773 5.55723 7.78009
Ob 15.2289 8.62691 7.16913
O 22.766 21.8583 10.0682
O 16.6057 8.37705 9.66839
O 21.5387 21.311 6.10801
Ow 13.2737 4.33444 6.25822
Hw 12.6426 4.70386 5.49868
Hw 12.5869 4.03945 6.997
Ca 27.2417 5.92087 12.1829
Ca 15.6651 9.41498 11.6737
Ca 25.1558 7.14953 22.5386
Ca 12.991 10.3701 22.202
Cw 26.1049 4.40162 15.5169
Cw 24.2746 2.56168 18.3486
Si 15.8995 7.21492 13.7335
Si 13.4136 2.90968 13.348
Si 14.462 7.65929 20.641
Si 14.2921 5.15637 18.7513
Si 12.2079 3.81213 20.8336
Ob 15.1076 7.10596 15.245
O 17.0517 6.02225 13.6247
O 14.8957 7.35593 12.4697
Ob 14.2368 4.27027 13.9566
O 15.9275 2.16236 12.3026
O 26.0853 3.57285 13.1683
Ob 13.0688 2.01726 14.694
Ob 22.6935 19.8645 19.7832
O 15.5126 6.81554 21.5988
O 13.0446 8.07407 21.4945
Ob 14.1394 6.8739 19.1498
Ob 12.7253 4.64649 19.4406
O 13.5885 3.22748 21.5821
O 25.4883 4.98224 21.7887
O 16.3503 24.5539 16.8428
O 14.3158 5.10731 17.1743
O 15.6817 4.45248 19.366
Ow 25.3061 7.11259 18.9502
Hw 25.6992 7.83863 18.3266
Hw 19.3611 21.4127 18.8157
Ow 1.47607 13.4815 18.1516
Hw 1.6082 13.1374 19.0952
Hw 1.27608 12.6466 17.5855
Ca 15.92 19.1245 24.2249
Ca 18.241 18.2074 10.4878
Ca 16.2054 15.2656 9.82453
Cw 20.4848 23.4126 6.18886
Si 28.7493 17.622 9.49046
Si 2.68002 21.2031 8.96626
O 2.06401 17.5914 0.37063
Ob 27.7665 16.8626 8.31119
O 27.9851 18.9137 10.1306
O 0.632849 16.6106 10.7153
Oh 2.00143 17.753 8.6659
Oh 2.20909 20.2394 7.68611
O 1.38171 21.7651 9.84707
O 17.9445 20.4666 10.1822
Ow 22.8205 16.9131 5.22124
Hw 24.561 9.13495 5.34413
Hw 22.4255 17.4529 6.01215
Ca 0.440713 18.2348 12.3834
Ca 16.7628 20.9775 12.2498
Ca 26.6061 19.3024 22.6705
Ca 14.4262 22.4136 22.1781
Cw 26.0979 16.914 17.4234
Cw 17.2742 2.80554 18.4089
Si 16.4636 17.6915 13.4658
Si 14.759 15.0849 12.8477
Si 15.7433 18.6835 20.7672
Si 13.6897 16.4854 21.5087
Ob 16.821 18.2677 14.9723
O 24.8963 5.15996 12.1107
O 15.4521 18.6227 12.5317
Ob 15.58 16.197 13.8324
O 21.6492 2.50235 12.6471
O 27.508 15.1947 13.1104
Oh 0.82242 14.1868 15.1365
Ob 15.4702 20.0041 19.7781
O 22.7295 6.71386 22.241
O 14.1965 18.1249 21.3923
Oh 14.4929 16.8645 17.2767
Oh 16.3212 17.5016 19.6682
O 20.5602 3.35484 21.7235
O 26.8058 17.1468 21.7719
O 17.5 3.10767 16.0408
O 19.0975 1.4462 17.3017
Ow 25.287 17.5852 19.5738
Hw 25.9124 17.4557 20.4233
Hw 20.5197 8.80577 16.7893
Ow 0.432277 21.9002 19.5072
Hw 28.3091 22.8286 19.3933
Hw 1.41894 22.0516 19.9265
Ca 17.5546 1.11172 24.2745
Ca 17.8234 22.3694 24.1012
Ca 22.2453 24.1032 10.3865
Ca 20.3912 21.0613 10.401
Cw 17.0452 16.5346 4.2721
Si 18.4919 23.7799 9.043
Si 18.2537 3.41002 9.64313
O 17.8229 24.8062 24.2588
Ob 17.5292 22.4168 8.34461
O 14.7227 0.427531 10.0782
O 19.8792 23.2438 9.85487
Oh 16.201 0.477442 7.69965
Oh 16.6844 3.02264 8.8896
O 17.8799 4.33039 10.9339
O 19.2155 2.2168 10.2592
Ow 25.7997 22.5389 5.92461
Hw 25.3455 23.3398 5.4017
Hw 15.5734 11.654 5.4602
Ca 18.7571 23.9965 12.0613
Ca 18.397 2.69293 12.4396
Ca 13.7454 1.07749 22.2759
Ca 15.7904 4.45818 21.6981
Cw 16.3409 22.3391 17.4995
Cw 27.558 20.1873 18.3534
Si 20.8088 23.8423 13.5266
Si 19.1079 21.2157 13.4213
Si 17.9497 19.2906 15.8652
Si 20.6253 24.688 20.9408
Si 18.1995 22.7601 21.1129
Ob 18.2925 0.760829 14.7863
O 15.4583 11.7834 11.9647
O 21.1746 24.5132 12.452
Ob 20.0647 22.4612 14.1783
O 26.9686 8.34105 12.3799
O 19.2381 21.771 12.5162
Ob 18.5817 20.2745 14.6594
Ob 26.7784 14.7894 20.5131
O 12.8147 12.7073 21.988
O 18.9625 24.2239 20.9978
Oh 21.5373 23.838 19.7214
Oh 17.7451 22.155 19.5512
O 24.7044 9.25218 21.6937
O 16.7905 22.9725 22.0156
O 16.9502 20.1493 16.8749
O 27.0273 10.6117 19.5925
Ow 14.6183 22.972 19.0465
Hw 13.6287 22.5346 19.2276
Hw 14.6347 23.7772 19.6722
Ow 15.3994 1.31208 18.6124
Hw 14.622 1.00063 17.9191
Hw 15.2801 0.719674 19.4321
Ca 18.7863 13.2257 23.6581
Ca 16.5854 10.2197 23.8332
Cw 21.4263 14.936 4.62295
Si 18.4418 12.5431 0.992894
Si 20.3871 15.1849 1.03784
Ob 18.2377 11.6901 2.4228
O 20.0152 2.0038 24.2875
O 16.4851 12.5116 24.2374
Ob 19.4 13.8581 1.51774
O 21.865 4.736 24.2834
O 18.614 15.4873 24.2214
Ob 21.2992 15.5729 2.40286
O 26.0768 5.19107 4.31851
Ow 20.6517 9.68007 3.72209
Hw 20.4636 8.79237 4.22521
Hw 21.5239 9.47001 3.11677
Ca 24.2907 18.4829 0.0952129
Ca 20.8895 16.3949 23.9392
Cw 25.8555 20.8846 4.35369
Si 22.1494 18.729 1.17962
Si 24.1293 21.4032 1.27486
Si 24.751 23.901 2.92451
Ob 21.3801 18.3949 2.64213
O 26.9757 7.11796 0.317757
O 23.3261 17.6573 0.663876
Ob 23.2471 20.0341 1.74482
O 25.9319 10.7805 24.0727
O 25.5446 21.0789 0.339502
Ob 24.4614 22.1987 2.74827
O 17.314 10.3888 4.5704
Ow 21.9913 12.6671 3.85797
Hw 22.4608 12.6356 2.93842
Hw 22.6799 12.0745 4.41614
Ca 19.4266 4.19152 23.7578
Cw 26.8385 6.88375 5.86457
Si 20.8525 6.12768 0.75402
Si 23.0336 9.3351 0.429221
Oh 21.359 6.63509 2.24969
O 16.953 7.86192 24.2554
Ob 22.8905 9.16579 1.99175
O 19.0758 10.9092 23.9296
O 21.3094 9.31578 24.006
Oh 24.0379 10.9462 4.94676
Ow 23.3784 5.11663 5.38841
Hw 16.2027 13.9476 3.09206
Hw 15.3004 14.8525 2.08913
Cw 28.7278 14.0111 4.62193
Si 25.0017 12.5311 0.540413
Si 27.1233 14.9876 1.0813
Si 27.6835 16.6834 3.53854
Oh 23.9656 11.8794 1.7818
O 21.1825 14.0473 23.8112
Ob 26.0872 13.5838 1.38849
O 26.1814 16.1346 0.349817
O 26.9633 14.642 0.0492179
Ob 27.7951 15.299 2.58133
O 26.022 16.9553 3.9607
Ow 25.9301 9.64871 2.82797
Hw 20.4462 20.6156 5.05656
Hw 20.4232 19.5647 3.80513
Ca 24.6338 1.01313 23.9702
Ca 28.0088 21.4653 0.0465048
Cw 0.0981053 1.60671 5.40184
Si 24.1648 0.603799 0.831571
Si 25.96 3.13275 0.737195
Si 27.3453 4.68464 3.37925
Ob 26.3722 23.9567 2.15449
O 16.9891 13.0252 0.234841
O 24.9815 24.5792 24.1435
Ob 25.2502 1.77982 1.46926
O 19.2903 16.1931 0.269415
O 24.1768 3.35574 23.9454
Ob 26.7231 3.98031 1.95604
O 0.116858 3.71604 4.16721
Ow 28.0234 21.6447 3.30463
Hw 28.9838 21.1873 3.13228
Hw 28.1915 22.6439 3.2391
Ca 14.5453 7.26157 24.0071
Ca -1.73423 4.17642 23.9122
Cw 17.3925 8.31691 5.79315
Si 0.0356842 6.65853 1.1453
Si 1.72696 9.34059 0.587726
Si 16.6982 11.1991 3.30398
Ob -0.124108 6.07067 2.70189
O 18.2613 20.0205 24.3778
O 0.95059 5.73898 0.136459
Ob 1.09275 8.07601 1.53403
O 23.0795 22.1934 0.251424
O 14.1295 9.57332 24.2984
Ob 15.8857 10.2702 2.1544
O 22.0518 0.266718 4.4275
O 20.7642 0.587494 2.16598
Ow 17.4635 6.06732 2.21847
Hw 18.0472 5.36765 2.72793
Hw 16.8434 6.51676 2.92875
Ca 2.4985 15.2429 0.317904
Cw 17.3537 20.1215 3.68423
Si 29.3539 18.5121 1.27323
Si 3.06036 21.1793 1.38911
Ob 28.5823 17.8138 2.60543
O 28.1556 19.1188 0.261067
Ob 1.9989 19.8362 1.84885
O 2.10919 22.1762 0.467275
O 15.4729 21.3639 24.0333
Oh 18.2936 21.7465 2.0869
O 3.83207 23.6554 4.65583
Ow 16.1659 14.9228 2.73572
Hw 23.7957 4.61625 6.19374
Hw 24.3094 5.19624 4.81879
Cw 19.8967 2.07881 3.8592
Si 16.9919 0.860323 0.878503
Si 18.865 3.36972 0.303785
Oh 16.4646 0.218557 2.28448
O 12.7694 2.09045 24.2631
Ob 18.0149 2.29358 1.31543
O 14.8181 4.94878 23.7969
O 17.0061 3.31534 23.6551
Oh 19.9744 4.53358 1.08621
O 28.4977 16.3613 4.92595
Ow 19.7569 20.1149 4.41002
Hw 24.9892 9.1227 2.89979
Hw 26.6959 9.15177 3.39399
Oh 6.82795 1.31999 3.73023
H 7.23389 1.8507 2.94679
Oh 9.41964 22.0714 3.59845
H 8.94267 21.8716 2.70548
Oh 3.96888 8.16342 4.94894
H 5.0242 8.22769 4.66507
Oh 1.14409 6.43158 5.74373
H 1.65726 7.0128 6.43167
Oh 16.9734 18.6085 5.46198
H 16.8852 18.7857 6.45434
Oh 18.2627 18.0634 2.77891
H 19.3607 17.9503 2.6891
Oh 21.694 3.62152 3.10052
H 22.6915 3.25703 2.87031
Oh 17.8229 1.16669 4.87715
H 16.9066 1.71801 4.98033
Oh 2.25597 5.11384 18.0369
H 1.867 4.91744 18.9648
Oh 25.5915 2.2528 16.4128
H 25.839 1.50712 15.7551
Oh 27.1984 19.5247 5.82643
H 28.0902 19.93 6.25943
Oh 25.9588 19.3384 2.57675
H 27.002 19.0821 2.36614
Oh 16.6986 6.07787 6.59219
H 17.3635 5.29748 6.79582
Oh 15.668 7.47044 4.21021
H 15.42 7.67656 3.2383
Oh 8.19006 2.99532 17.1059
H 7.97452 3.62371 16.3254
Oh 11.3522 22.4859 17.0165
H 11.1054 22.3164 16.0367
Oh 12.4298 21.5851 4.76582